89
	Energy:     262.6258829
C         17.55147       12.51074        1.73610
C         31.19839        9.95362        3.0
C         26.15933        7.68737        1.74020
C          4.08590       10.05006        2.95317
C          8.98492        7.63391        4.26385
C         26.15910        7.69410        4.26895
C          8.98510        7.63415        1.73595
C         17.55663       11.64473        3.000
C         26.16050        8.55633        3.000
C          8.98719        8.50061        3.00000
C         20.68786        8.57964        3.00000
C         21.19988        9.97019        3.00000
C         20.14110       11.00632        3.00000
C         18.72938       10.66868        3.00000
C         18.29470        9.38688        3.00000
C         19.25289        8.29785        3.00000
C         16.39588       10.65484        3.00000
C         16.84481        9.38028        3.00000
C         14.97887       10.97490        3.00000
C         13.92820        9.92663        3.00000
C         14.46357        8.54516        3.00000
C         15.89707        8.28992        3.00000
C         23.05437       11.64610        3.00000
C         22.53034       10.26294        3.00000
C         23.58083        9.21565        3.00000
C         24.99626        9.54210        3.00000
C         25.44049       10.82132        3.00000
C         24.48694       11.90769        3.00000
C         27.32822        9.53552        3.00000
C         26.89129       10.81921        3.00000
C         28.74214        9.20676        3.00000
C         29.73752       10.27219        3.00000
C         29.27671       11.65296        3.00000
C         27.84524       11.91626        3.00000
C          6.06200       11.61571        3.00000
C          5.56603       10.29616        3.00000
C          6.46033        9.21645        3.00000
C          7.82489        9.47813        3.00000
C          8.31001       10.79677        3.00000
C          7.43727       11.87164        3.00000
C         10.15010        9.48030        3.00000
C          9.76907       10.77434        3.00000
C         11.55927        9.14642        3.00000
C         12.59259       10.20647        3.00000
C         12.06107       11.59400        3.00000
C         10.73617       11.84661        3.00000
H         18.90861        7.26794        3. 
H         21.34789        7.71976        3.
H         20.39309       12.06161        3.0000
H         22.39882       12.50964        3.
H         23.32536        8.16172        3.000
H         24.83944       12.93550        3.
H         18.43163       13.16266        1.69567
H         16.66357       13.15206        1.69562
H         17.55516       11.89932        0.82537
H         14.71846       12.02791        3.0000
H         16.25376        7.26355        3.00000
H         13.81530        7.67623        3.0000
H         12.73592       12.44278        3.0000
H         10.37168       12.87076        3.0000
H         11.82109        8.09487        3.0000
H          8.09801        6.99103        4.30436
H          8.98795        8.24480        5.17501
H          9.86635        6.98364        4.30353
H          6.09557        8.19367        2.99128
H          3.54177       10.84343        3.47626
H          3.83086        9.10449        3.44313
H          3.74626       10.01274        1.91360
H          5.37011       12.45559        2.99071
H          7.80218       12.89290        2.99797
H         25.27474        7.04137        1.70155
H         27.04296        7.04001        1.70129
H         26.15960        8.29653        0.82796
H         27.49071       12.94289        3.00231
H         29.98216       12.47807        3.01004
H         29.05838        8.16718        3.00981
H         31.78262       10.72983        2.54586
H         31.40669        9.00574        2.54393
H         31.52918        9.88034        4.09060
H         25.27434        7.04855        4.31109
H         26.15944        8.30819        5.17792
H         27.04261        7.04681        4.31150
H          8.98802        8.24523        0.82492
H          8.09833        6.99109        1.69527
H          9.86665        6.98405        1.69614
C         17.55148       12.50972        4.26521
H         16.66357       13.15100        4.30623
H         18.43165       13.16159        4.30618
H         17.55517       11.89754        5.17543
