77
	Energy:     131.0352571
C         11.61788        9.42478        2.50000
C         12.60872       10.42574        2.50000
C         12.14789       11.76169        2.50000
C         10.76508       12.04380        2.50000
C          9.80592       11.03826        2.50000
C         10.24115        9.70444        2.50000
N         10.08697       13.24706        2.50000
C          8.72340       13.04125        2.50000
C          8.52066       11.66019        2.50000
C          7.65059       13.94665        2.50000
C          6.12529       12.06251        2.50000
C          7.19993       11.16632        2.50000
C         20.61834        8.74436        2.50000
C         21.07746       10.07432        2.50000
C         20.08378       11.08079        2.50000
C         18.71331       10.74548        2.50000
C         18.28785        9.42066        2.50000
C         19.25632        8.40544        2.50000
N         17.57740       11.52979        2.50000
C         16.43992       10.74458        2.50000
C         16.86267        9.42103        2.50000
C         15.07240       11.09280        2.50000
C         14.07529       10.09060        2.50000
C         14.53062        8.75785        2.50000
C         15.89095        8.41042        2.50000
C         29.02296       12.05508        2.50000
C         28.80219       13.43440        2.50000
C         27.49322       13.93664        2.50000
C         26.42677       13.02584        2.50000
C         26.62918       11.64705        2.50000
C         27.95010       11.15581        2.50000
N         25.06240       13.23585        2.50000
C         24.38295       12.03581        2.50000
C         25.34302       11.02816        2.50000
C         23.00273       11.74453        2.50000
C         22.54407       10.40751        2.50000
C         23.53510        9.40834        2.50000
C         24.91022        9.69290        2.50000
C          6.34295       13.44216        2.50000
H         30.03625       11.66017        2.50000
H         28.13635       10.08567        2.50000
H         25.63065        8.88057        2.50000
H         23.27716        8.35414        2.50000
H         21.30811        7.90669        2.50000
H         18.95965        7.36074        2.50000
H         16.18233        7.36434        2.50000
H         13.83801        7.92267        2.50000
H         11.87748        8.37101        2.50000
H          9.52366        8.88960        2.50000
H          7.01561       10.09579        2.50000
H          5.11133       11.66876        2.50000
H          7.82204       15.01804        2.50000
H         12.83594       12.59709        2.50000
H         14.81644       12.14463        2.50000
H         20.35165       12.12849        2.50000
H         22.30796       12.57291        2.50000
H         27.31371       15.00758        2.50000
C         29.94868       14.40177        2.50000
H         30.91316       13.88508        2.50000
H         29.90270       15.03458        3.39229
H         29.90270       15.03458        1.60771
C         24.46594       14.55405        2.50000
H         23.37762       14.48901        2.50000
H         24.79804       15.08078        1.60124
H         24.79804       15.08078        3.39876
C         17.54682       12.97643        2.50000
H         18.55730       13.38645        2.50000
H         17.02133       13.30915        3.39910
H         17.02133       13.30915        1.60090
C         10.74025       14.53787        2.50000
H         10.00483       15.34338        2.50000
H         11.35640       14.61190        1.60021
H         11.35640       14.61190        3.39979
C          5.17741       14.38712        2.50000
H          5.51087       15.43057        2.50000
H          4.56616       14.23151        3.39411
H          4.56615       14.23151        1.60589
