77
	Energy:     131.0313719
C         14.50119        8.83524        2.50000
C         14.07652       10.17939        2.50000
C         15.09296       11.15375        2.50000
C         16.44702       10.77671        2.50000
C         16.85108        9.44841        2.50000
C         15.85745        8.45630        2.50000
C         18.71002       10.76064        2.50000
C         18.27916        9.43703        2.50000
C         20.07414       11.10180        2.50000
C         21.06870       10.10492        2.50000
C         20.61435        8.77106        2.50000
C         19.25094        8.42389        2.50000
C         12.21620       11.92164        2.50000
C         12.62749       10.57297        2.50000
C         11.60146        9.60700        2.50000
C         10.24856       10.00161        2.50000
C          9.86363       11.33590        2.50000
C         10.86746       12.31606        2.50000
C          7.97877       10.05675        2.50000
C          8.43611       11.37631        2.50000
C          6.60919        9.74929        2.50000
C          5.68116       10.80137        2.50000
C          6.12434       12.12513        2.50000
C          7.49172       12.42346        2.50000
C         29.06795       11.84780        2.50000
C         29.47615       10.51100        2.50000
C         28.52049        9.48624        2.50000
C         27.16208        9.83782        2.50000
C         26.73750       11.16556        2.50000
C         27.70932       12.18666        2.50000
C         24.89228        9.82772        2.50000
C         25.30923       11.15543        2.50000
C         23.52819        9.47422        2.50000
C         22.52657       10.46539        2.50000
C         22.97143       11.80258        2.50000
C         24.32985       12.16063        2.50000
H         16.12714        7.40437        2.50000
H         13.78708        8.01758        2.50000
H         14.86442       12.21087        2.50000
H         12.93515       12.73467        2.50000
H         11.82381        8.54801        2.50000
H         10.61104       13.37102        2.50000
H         20.33642       12.15026        2.50000
H         18.95790        7.37796        2.50000
H         21.30852        7.93667        2.50000
H         22.27392       12.63401        2.50000
H         24.61361       13.20881        2.50000
H         23.27008        8.42433        2.50000
H         28.82378        8.44393        2.50000
H         29.80863       12.64448        2.50000
H         27.40873       13.23038        2.50000
H          7.82202       13.45828        2.50000
H          5.40952       12.94476        2.50000
H          6.26411        8.72030        2.50000
N         17.58529       11.55274        2.50000
N          9.09364        9.24627        2.50000
N         26.02935        9.04969        2.50000
C         30.93833       10.17348        2.50000
H         31.09773        9.08979        2.50000
H         31.41951       10.58249        3.39371
H         31.41951       10.58249        1.60630
C         26.06511        7.60347        2.50000
H         25.05633        7.18943        2.50000
H         26.59084        7.27355        3.39968
H         26.59084        7.27355        1.60032
C         17.56346       12.99934        2.50000
H         18.57527       13.40465        2.50000
H         17.03987       13.33391        3.39947
H         17.03986       13.33391        1.60053
C          9.09038        7.79965        2.50000
H          8.07038        7.41491        2.50000
H          9.60914        7.45558        3.39893
H          9.60914        7.45558        1.60107
C          4.21612       10.47617        2.50000
H          3.60110       11.38130        2.50000
H          3.96237        9.89450        3.39223
H          3.96237        9.89450        1.60777
